+ 0.2 0 1 cbr 500 ------- 0 0.0 2.0 0 0
- 0.2 0 1 cbr 500 ------- 0 0.0 2.0 0 0
+ 0.205 0 1 cbr 500 ------- 0 0.0 2.0 1 1
- 0.21 0 1 cbr 500 ------- 0 0.0 2.0 1 1
+ 0.21 0 1 cbr 500 ------- 0 0.0 2.0 2 2
+ 0.215 0 1 cbr 500 ------- 0 0.0 2.0 3 3
r 0.22 0 1 cbr 500 ------- 0 0.0 2.0 0 0
+ 0.22 1 2 cbr 500 ------- 0 0.0 2.0 0 0
- 0.22 1 2 cbr 500 ------- 0 0.0 2.0 0 0
- 0.22 0 1 cbr 500 ------- 0 0.0 2.0 2 2
+ 0.22 0 1 cbr 500 ------- 0 0.0 2.0 4 4
+ 0.225 0 1 cbr 500 ------- 0 0.0 2.0 5 5
r 0.23 0 1 cbr 500 ------- 0 0.0 2.0 1 1
+ 0.23 1 2 cbr 500 ------- 0 0.0 2.0 1 1
- 0.23 1 2 cbr 500 ------- 0 0.0 2.0 1 1
- 0.23 0 1 cbr 500 ------- 0 0.0 2.0 3 3
+ 0.23 0 1 cbr 500 ------- 0 0.0 2.0 6 6
+ 0.235 0 1 cbr 500 ------- 0 0.0 2.0 7 7
r 0.24 1 2 cbr 500 ------- 0 0.0 2.0 0 0
r 0.24 0 1 cbr 500 ------- 0 0.0 2.0 2 2
+ 0.24 1 2 cbr 500 ------- 0 0.0 2.0 2 2
- 0.24 1 2 cbr 500 ------- 0 0.0 2.0 2 2
- 0.24 0 1 cbr 500 ------- 0 0.0 2.0 4 4
+ 0.24 0 1 cbr 500 ------- 0 0.0 2.0 8 8
+ 0.245 0 1 cbr 500 ------- 0 0.0 2.0 9 9
r 0.25 1 2 cbr 500 ------- 0 0.0 2.0 1 1
r 0.25 0 1 cbr 500 ------- 0 0.0 2.0 3 3
+ 0.25 1 2 cbr 500 ------- 0 0.0 2.0 3 3
- 0.25 1 2 cbr 500 ------- 0 0.0 2.0 3 3
- 0.25 0 1 cbr 500 ------- 0 0.0 2.0 5 5
+ 0.25 0 1 cbr 500 ------- 0 0.0 2.0 10 10
+ 0.255 0 1 cbr 500 ------- 0 0.0 2.0 11 11
r 0.26 1 2 cbr 500 ------- 0 0.0 2.0 2 2
r 0.26 0 1 cbr 500 ------- 0 0.0 2.0 4 4
+ 0.26 1 2 cbr 500 ------- 0 0.0 2.0 4 4
- 0.26 1 2 cbr 500 ------- 0 0.0 2.0 4 4
- 0.26 0 1 cbr 500 ------- 0 0.0 2.0 6 6
+ 0.26 0 1 cbr 500 ------- 0 0.0 2.0 12 12
+ 0.265 0 1 cbr 500 ------- 0 0.0 2.0 13 13
r 0.27 1 2 cbr 500 ------- 0 0.0 2.0 3 3
r 0.27 0 1 cbr 500 ------- 0 0.0 2.0 5 5
+ 0.27 1 2 cbr 500 ------- 0 0.0 2.0 5 5
- 0.27 1 2 cbr 500 ------- 0 0.0 2.0 5 5
- 0.27 0 1 cbr 500 ------- 0 0.0 2.0 7 7
+ 0.27 0 1 cbr 500 ------- 0 0.0 2.0 14 14
+ 0.275 0 1 cbr 500 ------- 0 0.0 2.0 15 15
r 0.28 1 2 cbr 500 ------- 0 0.0 2.0 4 4
r 0.28 0 1 cbr 500 ------- 0 0.0 2.0 6 6
+ 0.28 1 2 cbr 500 ------- 0 0.0 2.0 6 6
- 0.28 1 2 cbr 500 ------- 0 0.0 2.0 6 6
- 0.28 0 1 cbr 500 ------- 0 0.0 2.0 8 8
+ 0.28 0 1 cbr 500 ------- 0 0.0 2.0 16 16
+ 0.285 0 1 cbr 500 ------- 0 0.0 2.0 17 17
r 0.29 1 2 cbr 500 ------- 0 0.0 2.0 5 5
r 0.29 0 1 cbr 500 ------- 0 0.0 2.0 7 7
+ 0.29 1 2 cbr 500 ------- 0 0.0 2.0 7 7
- 0.29 1 2 cbr 500 ------- 0 0.0 2.0 7 7
- 0.29 0 1 cbr 500 ------- 0 0.0 2.0 9 9
+ 0.29 0 1 cbr 500 ------- 0 0.0 2.0 18 18
+ 0.295 0 1 cbr 500 ------- 0 0.0 2.0 19 19
r 0.3 1 2 cbr 500 ------- 0 0.0 2.0 6 6
r 0.3 0 1 cbr 500 ------- 0 0.0 2.0 8 8
+ 0.3 1 2 cbr 500 ------- 0 0.0 2.0 8 8
- 0.3 1 2 cbr 500 ------- 0 0.0 2.0 8 8
- 0.3 0 1 cbr 500 ------- 0 0.0 2.0 10 10
+ 0.3 0 1 cbr 500 ------- 0 0.0 2.0 20 20
+ 0.305 0 1 cbr 500 ------- 0 0.0 2.0 21 21
r 0.31 1 2 cbr 500 ------- 0 0.0 2.0 7 7
r 0.31 0 1 cbr 500 ------- 0 0.0 2.0 9 9
+ 0.31 1 2 cbr 500 ------- 0 0.0 2.0 9 9
- 0.31 1 2 cbr 500 ------- 0 0.0 2.0 9 9
- 0.31 0 1 cbr 500 ------- 0 0.0 2.0 11 11
+ 0.31 0 1 cbr 500 ------- 0 0.0 2.0 22 22
+ 0.315 0 1 cbr 500 ------- 0 0.0 2.0 23 23
r 0.32 1 2 cbr 500 ------- 0 0.0 2.0 8 8
r 0.32 0 1 cbr 500 ------- 0 0.0 2.0 10 10
+ 0.32 1 2 cbr 500 ------- 0 0.0 2.0 10 10
- 0.32 1 2 cbr 500 ------- 0 0.0 2.0 10 10
- 0.32 0 1 cbr 500 ------- 0 0.0 2.0 12 12
+ 0.32 0 1 cbr 500 ------- 0 0.0 2.0 24 24
+ 0.325 0 1 cbr 500 ------- 0 0.0 2.0 25 25
r 0.33 1 2 cbr 500 ------- 0 0.0 2.0 9 9
r 0.33 0 1 cbr 500 ------- 0 0.0 2.0 11 11
+ 0.33 1 2 cbr 500 ------- 0 0.0 2.0 11 11
- 0.33 1 2 cbr 500 ------- 0 0.0 2.0 11 11
- 0.33 0 1 cbr 500 ------- 0 0.0 2.0 13 13
+ 0.33 0 1 cbr 500 ------- 0 0.0 2.0 26 26
+ 0.335 0 1 cbr 500 ------- 0 0.0 2.0 27 27
r 0.34 1 2 cbr 500 ------- 0 0.0 2.0 10 10
r 0.34 0 1 cbr 500 ------- 0 0.0 2.0 12 12
+ 0.34 1 2 cbr 500 ------- 0 0.0 2.0 12 12
- 0.34 1 2 cbr 500 ------- 0 0.0 2.0 12 12
- 0.34 0 1 cbr 500 ------- 0 0.0 2.0 14 14
+ 0.34 0 1 cbr 500 ------- 0 0.0 2.0 28 28
+ 0.345 0 1 cbr 500 ------- 0 0.0 2.0 29 29
r 0.35 1 2 cbr 500 ------- 0 0.0 2.0 11 11
r 0.35 0 1 cbr 500 ------- 0 0.0 2.0 13 13
+ 0.35 1 2 cbr 500 ------- 0 0.0 2.0 13 13
- 0.35 1 2 cbr 500 ------- 0 0.0 2.0 13 13
- 0.35 0 1 cbr 500 ------- 0 0.0 2.0 15 15
+ 0.35 0 1 cbr 500 ------- 0 0.0 2.0 30 30
+ 0.355 0 1 cbr 500 ------- 0 0.0 2.0 31 31
r 0.36 1 2 cbr 500 ------- 0 0.0 2.0 12 12
r 0.36 0 1 cbr 500 ------- 0 0.0 2.0 14 14
+ 0.36 1 2 cbr 500 ------- 0 0.0 2.0 14 14
- 0.36 1 2 cbr 500 ------- 0 0.0 2.0 14 14
- 0.36 0 1 cbr 500 ------- 0 0.0 2.0 16 16
+ 0.36 0 1 cbr 500 ------- 0 0.0 2.0 32 32
+ 0.365 0 1 cbr 500 ------- 0 0.0 2.0 33 33
r 0.37 1 2 cbr 500 ------- 0 0.0 2.0 13 13
r 0.37 0 1 cbr 500 ------- 0 0.0 2.0 15 15
+ 0.37 1 2 cbr 500 ------- 0 0.0 2.0 15 15
- 0.37 1 2 cbr 500 ------- 0 0.0 2.0 15 15
- 0.37 0 1 cbr 500 ------- 0 0.0 2.0 17 17
+ 0.37 0 1 cbr 500 ------- 0 0.0 2.0 34 34
+ 0.375 0 1 cbr 500 ------- 0 0.0 2.0 35 35
r 0.38 1 2 cbr 500 ------- 0 0.0 2.0 14 14
r 0.38 0 1 cbr 500 ------- 0 0.0 2.0 16 16
+ 0.38 1 2 cbr 500 ------- 0 0.0 2.0 16 16
- 0.38 1 2 cbr 500 ------- 0 0.0 2.0 16 16
- 0.38 0 1 cbr 500 ------- 0 0.0 2.0 18 18
+ 0.38 0 1 cbr 500 ------- 0 0.0 2.0 36 36
+ 0.385 0 1 cbr 500 ------- 0 0.0 2.0 37 37
r 0.39 1 2 cbr 500 ------- 0 0.0 2.0 15 15
r 0.39 0 1 cbr 500 ------- 0 0.0 2.0 17 17
+ 0.39 1 2 cbr 500 ------- 0 0.0 2.0 17 17
- 0.39 1 2 cbr 500 ------- 0 0.0 2.0 17 17
- 0.39 0 1 cbr 500 ------- 0 0.0 2.0 19 19
+ 0.39 0 1 cbr 500 ------- 0 0.0 2.0 38 38
+ 0.395 0 1 cbr 500 ------- 0 0.0 2.0 39 39
r 0.4 1 2 cbr 500 ------- 0 0.0 2.0 16 16
r 0.4 0 1 cbr 500 ------- 0 0.0 2.0 18 18
+ 0.4 1 2 cbr 500 ------- 0 0.0 2.0 18 18
- 0.4 1 2 cbr 500 ------- 0 0.0 2.0 18 18
- 0.4 0 1 cbr 500 ------- 0 0.0 2.0 20 20
+ 0.4 0 1 cbr 500 ------- 0 0.0 2.0 40 40
+ 0.405 0 1 cbr 500 ------- 0 0.0 2.0 41 41
r 0.41 1 2 cbr 500 ------- 0 0.0 2.0 17 17
r 0.41 0 1 cbr 500 ------- 0 0.0 2.0 19 19
+ 0.41 1 2 cbr 500 ------- 0 0.0 2.0 19 19
- 0.41 1 2 cbr 500 ------- 0 0.0 2.0 19 19
- 0.41 0 1 cbr 500 ------- 0 0.0 2.0 21 21
+ 0.41 0 1 cbr 500 ------- 0 0.0 2.0 42 42
+ 0.415 0 1 cbr 500 ------- 0 0.0 2.0 43 43
r 0.42 1 2 cbr 500 ------- 0 0.0 2.0 18 18
r 0.42 0 1 cbr 500 ------- 0 0.0 2.0 20 20
+ 0.42 1 2 cbr 500 ------- 0 0.0 2.0 20 20
- 0.42 1 2 cbr 500 ------- 0 0.0 2.0 20 20
- 0.42 0 1 cbr 500 ------- 0 0.0 2.0 22 22
+ 0.42 0 1 cbr 500 ------- 0 0.0 2.0 44 44
+ 0.425 0 1 cbr 500 ------- 0 0.0 2.0 45 45
r 0.43 1 2 cbr 500 ------- 0 0.0 2.0 19 19
r 0.43 0 1 cbr 500 ------- 0 0.0 2.0 21 21
+ 0.43 1 2 cbr 500 ------- 0 0.0 2.0 21 21
- 0.43 1 2 cbr 500 ------- 0 0.0 2.0 21 21
- 0.43 0 1 cbr 500 ------- 0 0.0 2.0 23 23
+ 0.43 0 1 cbr 500 ------- 0 0.0 2.0 46 46
+ 0.435 0 1 cbr 500 ------- 0 0.0 2.0 47 47
r 0.44 1 2 cbr 500 ------- 0 0.0 2.0 20 20
r 0.44 0 1 cbr 500 ------- 0 0.0 2.0 22 22
+ 0.44 1 2 cbr 500 ------- 0 0.0 2.0 22 22
- 0.44 1 2 cbr 500 ------- 0 0.0 2.0 22 22
- 0.44 0 1 cbr 500 ------- 0 0.0 2.0 24 24
+ 0.44 0 1 cbr 500 ------- 0 0.0 2.0 48 48
+ 0.445 0 1 cbr 500 ------- 0 0.0 2.0 49 49
r 0.45 1 2 cbr 500 ------- 0 0.0 2.0 21 21
r 0.45 0 1 cbr 500 ------- 0 0.0 2.0 23 23
+ 0.45 1 2 cbr 500 ------- 0 0.0 2.0 23 23
- 0.45 1 2 cbr 500 ------- 0 0.0 2.0 23 23
- 0.45 0 1 cbr 500 ------- 0 0.0 2.0 25 25
+ 0.45 0 1 cbr 500 ------- 0 0.0 2.0 50 50
+ 0.455 0 1 cbr 500 ------- 0 0.0 2.0 51 51
r 0.46 1 2 cbr 500 ------- 0 0.0 2.0 22 22
r 0.46 0 1 cbr 500 ------- 0 0.0 2.0 24 24
+ 0.46 1 2 cbr 500 ------- 0 0.0 2.0 24 24
- 0.46 1 2 cbr 500 ------- 0 0.0 2.0 24 24
- 0.46 0 1 cbr 500 ------- 0 0.0 2.0 26 26
+ 0.46 0 1 cbr 500 ------- 0 0.0 2.0 52 52
+ 0.465 0 1 cbr 500 ------- 0 0.0 2.0 53 53
r 0.47 1 2 cbr 500 ------- 0 0.0 2.0 23 23
r 0.47 0 1 cbr 500 ------- 0 0.0 2.0 25 25
+ 0.47 1 2 cbr 500 ------- 0 0.0 2.0 25 25
- 0.47 1 2 cbr 500 ------- 0 0.0 2.0 25 25
- 0.47 0 1 cbr 500 ------- 0 0.0 2.0 27 27
+ 0.47 0 1 cbr 500 ------- 0 0.0 2.0 54 54
+ 0.475 0 1 cbr 500 ------- 0 0.0 2.0 55 55
r 0.48 1 2 cbr 500 ------- 0 0.0 2.0 24 24
r 0.48 0 1 cbr 500 ------- 0 0.0 2.0 26 26
+ 0.48 1 2 cbr 500 ------- 0 0.0 2.0 26 26
- 0.48 1 2 cbr 500 ------- 0 0.0 2.0 26 26
- 0.48 0 1 cbr 500 ------- 0 0.0 2.0 28 28
+ 0.48 0 1 cbr 500 ------- 0 0.0 2.0 56 56
+ 0.485 0 1 cbr 500 ------- 0 0.0 2.0 57 57
r 0.49 1 2 cbr 500 ------- 0 0.0 2.0 25 25
r 0.49 0 1 cbr 500 ------- 0 0.0 2.0 27 27
+ 0.49 1 2 cbr 500 ------- 0 0.0 2.0 27 27
- 0.49 1 2 cbr 500 ------- 0 0.0 2.0 27 27
- 0.49 0 1 cbr 500 ------- 0 0.0 2.0 29 29
+ 0.49 0 1 cbr 500 ------- 0 0.0 2.0 58 58
+ 0.495 0 1 cbr 500 ------- 0 0.0 2.0 59 59
r 0.5 1 2 cbr 500 ------- 0 0.0 2.0 26 26
r 0.5 0 1 cbr 500 ------- 0 0.0 2.0 28 28
+ 0.5 1 2 cbr 500 ------- 0 0.0 2.0 28 28
- 0.5 1 2 cbr 500 ------- 0 0.0 2.0 28 28
- 0.5 0 1 cbr 500 ------- 0 0.0 2.0 30 30
+ 0.5 0 1 cbr 500 ------- 0 0.0 2.0 60 60
+ 0.505 0 1 cbr 500 ------- 0 0.0 2.0 61 61
r 0.51 1 2 cbr 500 ------- 0 0.0 2.0 27 27
r 0.51 0 1 cbr 500 ------- 0 0.0 2.0 29 29
+ 0.51 1 2 cbr 500 ------- 0 0.0 2.0 29 29
- 0.51 1 2 cbr 500 ------- 0 0.0 2.0 29 29
- 0.51 0 1 cbr 500 ------- 0 0.0 2.0 31 31
+ 0.51 0 1 cbr 500 ------- 0 0.0 2.0 62 62
+ 0.515 0 1 cbr 500 ------- 0 0.0 2.0 63 63
r 0.52 1 2 cbr 500 ------- 0 0.0 2.0 28 28
r 0.52 0 1 cbr 500 ------- 0 0.0 2.0 30 30
+ 0.52 1 2 cbr 500 ------- 0 0.0 2.0 30 30
- 0.52 1 2 cbr 500 ------- 0 0.0 2.0 30 30
- 0.52 0 1 cbr 500 ------- 0 0.0 2.0 32 32
+ 0.52 0 1 cbr 500 ------- 0 0.0 2.0 64 64
+ 0.525 0 1 cbr 500 ------- 0 0.0 2.0 65 65
r 0.53 1 2 cbr 500 ------- 0 0.0 2.0 29 29
r 0.53 0 1 cbr 500 ------- 0 0.0 2.0 31 31
+ 0.53 1 2 cbr 500 ------- 0 0.0 2.0 31 31
- 0.53 1 2 cbr 500 ------- 0 0.0 2.0 31 31
- 0.53 0 1 cbr 500 ------- 0 0.0 2.0 33 33
+ 0.53 0 1 cbr 500 ------- 0 0.0 2.0 66 66
+ 0.535 0 1 cbr 500 ------- 0 0.0 2.0 67 67
r 0.54 1 2 cbr 500 ------- 0 0.0 2.0 30 30
r 0.54 0 1 cbr 500 ------- 0 0.0 2.0 32 32
+ 0.54 1 2 cbr 500 ------- 0 0.0 2.0 32 32
- 0.54 1 2 cbr 500 ------- 0 0.0 2.0 32 32
- 0.54 0 1 cbr 500 ------- 0 0.0 2.0 34 34
+ 0.54 0 1 cbr 500 ------- 0 0.0 2.0 68 68
+ 0.545 0 1 cbr 500 ------- 0 0.0 2.0 69 69
r 0.55 1 2 cbr 500 ------- 0 0.0 2.0 31 31
r 0.55 0 1 cbr 500 ------- 0 0.0 2.0 33 33
+ 0.55 1 2 cbr 500 ------- 0 0.0 2.0 33 33
- 0.55 1 2 cbr 500 ------- 0 0.0 2.0 33 33
- 0.55 0 1 cbr 500 ------- 0 0.0 2.0 35 35
+ 0.55 0 1 cbr 500 ------- 0 0.0 2.0 70 70
+ 0.555 0 1 cbr 500 ------- 0 0.0 2.0 71 71
r 0.56 1 2 cbr 500 ------- 0 0.0 2.0 32 32
r 0.56 0 1 cbr 500 ------- 0 0.0 2.0 34 34
+ 0.56 1 2 cbr 500 ------- 0 0.0 2.0 34 34
- 0.56 1 2 cbr 500 ------- 0 0.0 2.0 34 34
- 0.56 0 1 cbr 500 ------- 0 0.0 2.0 36 36
+ 0.56 0 1 cbr 500 ------- 0 0.0 2.0 72 72
+ 0.565 0 1 cbr 500 ------- 0 0.0 2.0 73 73
r 0.57 1 2 cbr 500 ------- 0 0.0 2.0 33 33
r 0.57 0 1 cbr 500 ------- 0 0.0 2.0 35 35
+ 0.57 1 2 cbr 500 ------- 0 0.0 2.0 35 35
- 0.57 1 2 cbr 500 ------- 0 0.0 2.0 35 35
- 0.57 0 1 cbr 500 ------- 0 0.0 2.0 37 37
+ 0.57 0 1 cbr 500 ------- 0 0.0 2.0 74 74
+ 0.575 0 1 cbr 500 ------- 0 0.0 2.0 75 75
r 0.58 1 2 cbr 500 ------- 0 0.0 2.0 34 34
r 0.58 0 1 cbr 500 ------- 0 0.0 2.0 36 36
+ 0.58 1 2 cbr 500 ------- 0 0.0 2.0 36 36
- 0.58 1 2 cbr 500 ------- 0 0.0 2.0 36 36
- 0.58 0 1 cbr 500 ------- 0 0.0 2.0 38 38
+ 0.58 0 1 cbr 500 ------- 0 0.0 2.0 76 76
+ 0.585 0 1 cbr 500 ------- 0 0.0 2.0 77 77
r 0.59 1 2 cbr 500 ------- 0 0.0 2.0 35 35
r 0.59 0 1 cbr 500 ------- 0 0.0 2.0 37 37
+ 0.59 1 2 cbr 500 ------- 0 0.0 2.0 37 37
- 0.59 1 2 cbr 500 ------- 0 0.0 2.0 37 37
- 0.59 0 1 cbr 500 ------- 0 0.0 2.0 39 39
+ 0.59 0 1 cbr 500 ------- 0 0.0 2.0 78 78
+ 0.595 0 1 cbr 500 ------- 0 0.0 2.0 79 79
r 0.6 1 2 cbr 500 ------- 0 0.0 2.0 36 36
r 0.6 0 1 cbr 500 ------- 0 0.0 2.0 38 38
+ 0.6 1 2 cbr 500 ------- 0 0.0 2.0 38 38
- 0.6 1 2 cbr 500 ------- 0 0.0 2.0 38 38
- 0.6 0 1 cbr 500 ------- 0 0.0 2.0 40 40
+ 0.6 0 1 cbr 500 ------- 0 0.0 2.0 80 80
+ 0.605 0 1 cbr 500 ------- 0 0.0 2.0 81 81
r 0.61 1 2 cbr 500 ------- 0 0.0 2.0 37 37
r 0.61 0 1 cbr 500 ------- 0 0.0 2.0 39 39
+ 0.61 1 2 cbr 500 ------- 0 0.0 2.0 39 39
- 0.61 1 2 cbr 500 ------- 0 0.0 2.0 39 39
- 0.61 0 1 cbr 500 ------- 0 0.0 2.0 41 41
+ 0.61 0 1 cbr 500 ------- 0 0.0 2.0 82 82
+ 0.615 0 1 cbr 500 ------- 0 0.0 2.0 83 83
r 0.62 1 2 cbr 500 ------- 0 0.0 2.0 38 38
r 0.62 0 1 cbr 500 ------- 0 0.0 2.0 40 40
+ 0.62 1 2 cbr 500 ------- 0 0.0 2.0 40 40
- 0.62 1 2 cbr 500 ------- 0 0.0 2.0 40 40
- 0.62 0 1 cbr 500 ------- 0 0.0 2.0 42 42
+ 0.62 0 1 cbr 500 ------- 0 0.0 2.0 84 84
+ 0.625 0 1 cbr 500 ------- 0 0.0 2.0 85 85
r 0.63 1 2 cbr 500 ------- 0 0.0 2.0 39 39
r 0.63 0 1 cbr 500 ------- 0 0.0 2.0 41 41
+ 0.63 1 2 cbr 500 ------- 0 0.0 2.0 41 41
- 0.63 1 2 cbr 500 ------- 0 0.0 2.0 41 41
- 0.63 0 1 cbr 500 ------- 0 0.0 2.0 43 43
+ 0.63 0 1 cbr 500 ------- 0 0.0 2.0 86 86
+ 0.635 0 1 cbr 500 ------- 0 0.0 2.0 87 87
r 0.64 1 2 cbr 500 ------- 0 0.0 2.0 40 40
r 0.64 0 1 cbr 500 ------- 0 0.0 2.0 42 42
+ 0.64 1 2 cbr 500 ------- 0 0.0 2.0 42 42
- 0.64 1 2 cbr 500 ------- 0 0.0 2.0 42 42
- 0.64 0 1 cbr 500 ------- 0 0.0 2.0 44 44
+ 0.64 0 1 cbr 500 ------- 0 0.0 2.0 88 88
+ 0.645 0 1 cbr 500 ------- 0 0.0 2.0 89 89
r 0.65 1 2 cbr 500 ------- 0 0.0 2.0 41 41
r 0.65 0 1 cbr 500 ------- 0 0.0 2.0 43 43
+ 0.65 1 2 cbr 500 ------- 0 0.0 2.0 43 43
- 0.65 1 2 cbr 500 ------- 0 0.0 2.0 43 43
- 0.65 0 1 cbr 500 ------- 0 0.0 2.0 45 45
+ 0.65 0 1 cbr 500 ------- 0 0.0 2.0 90 90
+ 0.655 0 1 cbr 500 ------- 0 0.0 2.0 91 91
r 0.66 1 2 cbr 500 ------- 0 0.0 2.0 42 42
r 0.66 0 1 cbr 500 ------- 0 0.0 2.0 44 44
+ 0.66 1 2 cbr 500 ------- 0 0.0 2.0 44 44
- 0.66 1 2 cbr 500 ------- 0 0.0 2.0 44 44
- 0.66 0 1 cbr 500 ------- 0 0.0 2.0 46 46
+ 0.66 0 1 cbr 500 ------- 0 0.0 2.0 92 92
+ 0.665 0 1 cbr 500 ------- 0 0.0 2.0 93 93
r 0.67 1 2 cbr 500 ------- 0 0.0 2.0 43 43
r 0.67 0 1 cbr 500 ------- 0 0.0 2.0 45 45
+ 0.67 1 2 cbr 500 ------- 0 0.0 2.0 45 45
- 0.67 1 2 cbr 500 ------- 0 0.0 2.0 45 45
- 0.67 0 1 cbr 500 ------- 0 0.0 2.0 47 47
+ 0.67 0 1 cbr 500 ------- 0 0.0 2.0 94 94
+ 0.675 0 1 cbr 500 ------- 0 0.0 2.0 95 95
r 0.68 1 2 cbr 500 ------- 0 0.0 2.0 44 44
r 0.68 0 1 cbr 500 ------- 0 0.0 2.0 46 46
+ 0.68 1 2 cbr 500 ------- 0 0.0 2.0 46 46
- 0.68 1 2 cbr 500 ------- 0 0.0 2.0 46 46
- 0.68 0 1 cbr 500 ------- 0 0.0 2.0 48 48
+ 0.68 0 1 cbr 500 ------- 0 0.0 2.0 96 96
+ 0.685 0 1 cbr 500 ------- 0 0.0 2.0 97 97
r 0.69 1 2 cbr 500 ------- 0 0.0 2.0 45 45
r 0.69 0 1 cbr 500 ------- 0 0.0 2.0 47 47
+ 0.69 1 2 cbr 500 ------- 0 0.0 2.0 47 47
- 0.69 1 2 cbr 500 ------- 0 0.0 2.0 47 47
- 0.69 0 1 cbr 500 ------- 0 0.0 2.0 49 49
+ 0.69 0 1 cbr 500 ------- 0 0.0 2.0 98 98
+ 0.695 0 1 cbr 500 ------- 0 0.0 2.0 99 99
d 0.695 0 1 cbr 500 ------- 0 0.0 2.0 99 99
r 0.7 1 2 cbr 500 ------- 0 0.0 2.0 46 46
r 0.7 0 1 cbr 500 ------- 0 0.0 2.0 48 48
+ 0.7 1 2 cbr 500 ------- 0 0.0 2.0 48 48
- 0.7 1 2 cbr 500 ------- 0 0.0 2.0 48 48
- 0.7 0 1 cbr 500 ------- 0 0.0 2.0 50 50
+ 0.7 0 1 cbr 500 ------- 0 0.0 2.0 100 100
+ 0.705 0 1 cbr 500 ------- 0 0.0 2.0 101 101
d 0.705 0 1 cbr 500 ------- 0 0.0 2.0 101 101
r 0.71 1 2 cbr 500 ------- 0 0.0 2.0 47 47
r 0.71 0 1 cbr 500 ------- 0 0.0 2.0 49 49
+ 0.71 1 2 cbr 500 ------- 0 0.0 2.0 49 49
- 0.71 1 2 cbr 500 ------- 0 0.0 2.0 49 49
- 0.71 0 1 cbr 500 ------- 0 0.0 2.0 51 51
+ 0.71 0 1 cbr 500 ------- 0 0.0 2.0 102 102
+ 0.715 0 1 cbr 500 ------- 0 0.0 2.0 103 103
d 0.715 0 1 cbr 500 ------- 0 0.0 2.0 103 103
r 0.72 1 2 cbr 500 ------- 0 0.0 2.0 48 48
r 0.72 0 1 cbr 500 ------- 0 0.0 2.0 50 50
+ 0.72 1 2 cbr 500 ------- 0 0.0 2.0 50 50
- 0.72 1 2 cbr 500 ------- 0 0.0 2.0 50 50
- 0.72 0 1 cbr 500 ------- 0 0.0 2.0 52 52
+ 0.72 0 1 cbr 500 ------- 0 0.0 2.0 104 104
+ 0.725 0 1 cbr 500 ------- 0 0.0 2.0 105 105
d 0.725 0 1 cbr 500 ------- 0 0.0 2.0 105 105
r 0.73 1 2 cbr 500 ------- 0 0.0 2.0 49 49
r 0.73 0 1 cbr 500 ------- 0 0.0 2.0 51 51
+ 0.73 1 2 cbr 500 ------- 0 0.0 2.0 51 51
- 0.73 1 2 cbr 500 ------- 0 0.0 2.0 51 51
- 0.73 0 1 cbr 500 ------- 0 0.0 2.0 53 53
+ 0.73 0 1 cbr 500 ------- 0 0.0 2.0 106 106
+ 0.735 0 1 cbr 500 ------- 0 0.0 2.0 107 107
d 0.735 0 1 cbr 500 ------- 0 0.0 2.0 107 107
r 0.74 1 2 cbr 500 ------- 0 0.0 2.0 50 50
r 0.74 0 1 cbr 500 ------- 0 0.0 2.0 52 52
+ 0.74 1 2 cbr 500 ------- 0 0.0 2.0 52 52
- 0.74 1 2 cbr 500 ------- 0 0.0 2.0 52 52
- 0.74 0 1 cbr 500 ------- 0 0.0 2.0 54 54
+ 0.74 0 1 cbr 500 ------- 0 0.0 2.0 108 108
+ 0.745 0 1 cbr 500 ------- 0 0.0 2.0 109 109
d 0.745 0 1 cbr 500 ------- 0 0.0 2.0 109 109
r 0.75 1 2 cbr 500 ------- 0 0.0 2.0 51 51
r 0.75 0 1 cbr 500 ------- 0 0.0 2.0 53 53
+ 0.75 1 2 cbr 500 ------- 0 0.0 2.0 53 53
- 0.75 1 2 cbr 500 ------- 0 0.0 2.0 53 53
- 0.75 0 1 cbr 500 ------- 0 0.0 2.0 55 55
+ 0.75 0 1 cbr 500 ------- 0 0.0 2.0 110 110
+ 0.755 0 1 cbr 500 ------- 0 0.0 2.0 111 111
d 0.755 0 1 cbr 500 ------- 0 0.0 2.0 111 111
r 0.76 1 2 cbr 500 ------- 0 0.0 2.0 52 52
r 0.76 0 1 cbr 500 ------- 0 0.0 2.0 54 54
+ 0.76 1 2 cbr 500 ------- 0 0.0 2.0 54 54
- 0.76 1 2 cbr 500 ------- 0 0.0 2.0 54 54
- 0.76 0 1 cbr 500 ------- 0 0.0 2.0 56 56
+ 0.76 0 1 cbr 500 ------- 0 0.0 2.0 112 112
+ 0.765 0 1 cbr 500 ------- 0 0.0 2.0 113 113
d 0.765 0 1 cbr 500 ------- 0 0.0 2.0 113 113
r 0.77 1 2 cbr 500 ------- 0 0.0 2.0 53 53
r 0.77 0 1 cbr 500 ------- 0 0.0 2.0 55 55
+ 0.77 1 2 cbr 500 ------- 0 0.0 2.0 55 55
- 0.77 1 2 cbr 500 ------- 0 0.0 2.0 55 55
- 0.77 0 1 cbr 500 ------- 0 0.0 2.0 57 57
+ 0.77 0 1 cbr 500 ------- 0 0.0 2.0 114 114
+ 0.775 0 1 cbr 500 ------- 0 0.0 2.0 115 115
d 0.775 0 1 cbr 500 ------- 0 0.0 2.0 115 115
r 0.78 1 2 cbr 500 ------- 0 0.0 2.0 54 54
r 0.78 0 1 cbr 500 ------- 0 0.0 2.0 56 56
+ 0.78 1 2 cbr 500 ------- 0 0.0 2.0 56 56
- 0.78 1 2 cbr 500 ------- 0 0.0 2.0 56 56
- 0.78 0 1 cbr 500 ------- 0 0.0 2.0 58 58
+ 0.78 0 1 cbr 500 ------- 0 0.0 2.0 116 116
+ 0.785 0 1 cbr 500 ------- 0 0.0 2.0 117 117
d 0.785 0 1 cbr 500 ------- 0 0.0 2.0 117 117
r 0.79 1 2 cbr 500 ------- 0 0.0 2.0 55 55
r 0.79 0 1 cbr 500 ------- 0 0.0 2.0 57 57
+ 0.79 1 2 cbr 500 ------- 0 0.0 2.0 57 57
- 0.79 1 2 cbr 500 ------- 0 0.0 2.0 57 57
- 0.79 0 1 cbr 500 ------- 0 0.0 2.0 59 59
+ 0.79 0 1 cbr 500 ------- 0 0.0 2.0 118 118
+ 0.795 0 1 cbr 500 ------- 0 0.0 2.0 119 119
d 0.795 0 1 cbr 500 ------- 0 0.0 2.0 119 119
r 0.8 1 2 cbr 500 ------- 0 0.0 2.0 56 56
r 0.8 0 1 cbr 500 ------- 0 0.0 2.0 58 58
+ 0.8 1 2 cbr 500 ------- 0 0.0 2.0 58 58
- 0.8 1 2 cbr 500 ------- 0 0.0 2.0 58 58
- 0.8 0 1 cbr 500 ------- 0 0.0 2.0 60 60
+ 0.8 0 1 cbr 500 ------- 0 0.0 2.0 120 120
+ 0.805 0 1 cbr 500 ------- 0 0.0 2.0 121 121
d 0.805 0 1 cbr 500 ------- 0 0.0 2.0 121 121
r 0.81 1 2 cbr 500 ------- 0 0.0 2.0 57 57
r 0.81 0 1 cbr 500 ------- 0 0.0 2.0 59 59
+ 0.81 1 2 cbr 500 ------- 0 0.0 2.0 59 59
- 0.81 1 2 cbr 500 ------- 0 0.0 2.0 59 59
- 0.81 0 1 cbr 500 ------- 0 0.0 2.0 61 61
+ 0.81 0 1 cbr 500 ------- 0 0.0 2.0 122 122
+ 0.815 0 1 cbr 500 ------- 0 0.0 2.0 123 123
d 0.815 0 1 cbr 500 ------- 0 0.0 2.0 123 123
r 0.82 1 2 cbr 500 ------- 0 0.0 2.0 58 58
r 0.82 0 1 cbr 500 ------- 0 0.0 2.0 60 60
+ 0.82 1 2 cbr 500 ------- 0 0.0 2.0 60 60
- 0.82 1 2 cbr 500 ------- 0 0.0 2.0 60 60
- 0.82 0 1 cbr 500 ------- 0 0.0 2.0 62 62
+ 0.82 0 1 cbr 500 ------- 0 0.0 2.0 124 124
+ 0.825 0 1 cbr 500 ------- 0 0.0 2.0 125 125
d 0.825 0 1 cbr 500 ------- 0 0.0 2.0 125 125
r 0.83 1 2 cbr 500 ------- 0 0.0 2.0 59 59
r 0.83 0 1 cbr 500 ------- 0 0.0 2.0 61 61
+ 0.83 1 2 cbr 500 ------- 0 0.0 2.0 61 61
- 0.83 1 2 cbr 500 ------- 0 0.0 2.0 61 61
- 0.83 0 1 cbr 500 ------- 0 0.0 2.0 63 63
+ 0.83 0 1 cbr 500 ------- 0 0.0 2.0 126 126
+ 0.835 0 1 cbr 500 ------- 0 0.0 2.0 127 127
d 0.835 0 1 cbr 500 ------- 0 0.0 2.0 127 127
r 0.84 1 2 cbr 500 ------- 0 0.0 2.0 60 60
r 0.84 0 1 cbr 500 ------- 0 0.0 2.0 62 62
+ 0.84 1 2 cbr 500 ------- 0 0.0 2.0 62 62
- 0.84 1 2 cbr 500 ------- 0 0.0 2.0 62 62
- 0.84 0 1 cbr 500 ------- 0 0.0 2.0 64 64
+ 0.84 0 1 cbr 500 ------- 0 0.0 2.0 128 128
+ 0.845 0 1 cbr 500 ------- 0 0.0 2.0 129 129
d 0.845 0 1 cbr 500 ------- 0 0.0 2.0 129 129
r 0.85 1 2 cbr 500 ------- 0 0.0 2.0 61 61
r 0.85 0 1 cbr 500 ------- 0 0.0 2.0 63 63
+ 0.85 1 2 cbr 500 ------- 0 0.0 2.0 63 63
- 0.85 1 2 cbr 500 ------- 0 0.0 2.0 63 63
- 0.85 0 1 cbr 500 ------- 0 0.0 2.0 65 65
+ 0.85 0 1 cbr 500 ------- 0 0.0 2.0 130 130
+ 0.855 0 1 cbr 500 ------- 0 0.0 2.0 131 131
d 0.855 0 1 cbr 500 ------- 0 0.0 2.0 131 131
r 0.86 1 2 cbr 500 ------- 0 0.0 2.0 62 62
r 0.86 0 1 cbr 500 ------- 0 0.0 2.0 64 64
+ 0.86 1 2 cbr 500 ------- 0 0.0 2.0 64 64
- 0.86 1 2 cbr 500 ------- 0 0.0 2.0 64 64
- 0.86 0 1 cbr 500 ------- 0 0.0 2.0 66 66
+ 0.86 0 1 cbr 500 ------- 0 0.0 2.0 132 132
+ 0.865 0 1 cbr 500 ------- 0 0.0 2.0 133 133
d 0.865 0 1 cbr 500 ------- 0 0.0 2.0 133 133
r 0.87 1 2 cbr 500 ------- 0 0.0 2.0 63 63
r 0.87 0 1 cbr 500 ------- 0 0.0 2.0 65 65
+ 0.87 1 2 cbr 500 ------- 0 0.0 2.0 65 65
- 0.87 1 2 cbr 500 ------- 0 0.0 2.0 65 65
- 0.87 0 1 cbr 500 ------- 0 0.0 2.0 67 67
+ 0.87 0 1 cbr 500 ------- 0 0.0 2.0 134 134
+ 0.875 0 1 cbr 500 ------- 0 0.0 2.0 135 135
d 0.875 0 1 cbr 500 ------- 0 0.0 2.0 135 135
r 0.88 1 2 cbr 500 ------- 0 0.0 2.0 64 64
r 0.88 0 1 cbr 500 ------- 0 0.0 2.0 66 66
+ 0.88 1 2 cbr 500 ------- 0 0.0 2.0 66 66
- 0.88 1 2 cbr 500 ------- 0 0.0 2.0 66 66
- 0.88 0 1 cbr 500 ------- 0 0.0 2.0 68 68
+ 0.88 0 1 cbr 500 ------- 0 0.0 2.0 136 136
+ 0.885 0 1 cbr 500 ------- 0 0.0 2.0 137 137
d 0.885 0 1 cbr 500 ------- 0 0.0 2.0 137 137
r 0.89 1 2 cbr 500 ------- 0 0.0 2.0 65 65
r 0.89 0 1 cbr 500 ------- 0 0.0 2.0 67 67
+ 0.89 1 2 cbr 500 ------- 0 0.0 2.0 67 67
- 0.89 1 2 cbr 500 ------- 0 0.0 2.0 67 67
- 0.89 0 1 cbr 500 ------- 0 0.0 2.0 69 69
+ 0.89 0 1 cbr 500 ------- 0 0.0 2.0 138 138
+ 0.895 0 1 cbr 500 ------- 0 0.0 2.0 139 139
d 0.895 0 1 cbr 500 ------- 0 0.0 2.0 139 139
r 0.9 1 2 cbr 500 ------- 0 0.0 2.0 66 66
r 0.9 0 1 cbr 500 ------- 0 0.0 2.0 68 68
+ 0.9 1 2 cbr 500 ------- 0 0.0 2.0 68 68
- 0.9 1 2 cbr 500 ------- 0 0.0 2.0 68 68
- 0.9 0 1 cbr 500 ------- 0 0.0 2.0 70 70
+ 0.9 0 1 cbr 500 ------- 0 0.0 2.0 140 140
+ 0.905 0 1 cbr 500 ------- 0 0.0 2.0 141 141
d 0.905 0 1 cbr 500 ------- 0 0.0 2.0 141 141
r 0.91 1 2 cbr 500 ------- 0 0.0 2.0 67 67
r 0.91 0 1 cbr 500 ------- 0 0.0 2.0 69 69
+ 0.91 1 2 cbr 500 ------- 0 0.0 2.0 69 69
- 0.91 1 2 cbr 500 ------- 0 0.0 2.0 69 69
- 0.91 0 1 cbr 500 ------- 0 0.0 2.0 71 71
+ 0.91 0 1 cbr 500 ------- 0 0.0 2.0 142 142
+ 0.915 0 1 cbr 500 ------- 0 0.0 2.0 143 143
d 0.915 0 1 cbr 500 ------- 0 0.0 2.0 143 143
r 0.92 1 2 cbr 500 ------- 0 0.0 2.0 68 68
r 0.92 0 1 cbr 500 ------- 0 0.0 2.0 70 70
+ 0.92 1 2 cbr 500 ------- 0 0.0 2.0 70 70
- 0.92 1 2 cbr 500 ------- 0 0.0 2.0 70 70
- 0.92 0 1 cbr 500 ------- 0 0.0 2.0 72 72
+ 0.92 0 1 cbr 500 ------- 0 0.0 2.0 144 144
+ 0.925 0 1 cbr 500 ------- 0 0.0 2.0 145 145
d 0.925 0 1 cbr 500 ------- 0 0.0 2.0 145 145
r 0.93 1 2 cbr 500 ------- 0 0.0 2.0 69 69
r 0.93 0 1 cbr 500 ------- 0 0.0 2.0 71 71
+ 0.93 1 2 cbr 500 ------- 0 0.0 2.0 71 71
- 0.93 1 2 cbr 500 ------- 0 0.0 2.0 71 71
- 0.93 0 1 cbr 500 ------- 0 0.0 2.0 73 73
+ 0.93 0 1 cbr 500 ------- 0 0.0 2.0 146 146
+ 0.935 0 1 cbr 500 ------- 0 0.0 2.0 147 147
d 0.935 0 1 cbr 500 ------- 0 0.0 2.0 147 147
r 0.94 1 2 cbr 500 ------- 0 0.0 2.0 70 70
r 0.94 0 1 cbr 500 ------- 0 0.0 2.0 72 72
+ 0.94 1 2 cbr 500 ------- 0 0.0 2.0 72 72
- 0.94 1 2 cbr 500 ------- 0 0.0 2.0 72 72
- 0.94 0 1 cbr 500 ------- 0 0.0 2.0 74 74
+ 0.94 0 1 cbr 500 ------- 0 0.0 2.0 148 148
+ 0.945 0 1 cbr 500 ------- 0 0.0 2.0 149 149
d 0.945 0 1 cbr 500 ------- 0 0.0 2.0 149 149
r 0.95 1 2 cbr 500 ------- 0 0.0 2.0 71 71
r 0.95 0 1 cbr 500 ------- 0 0.0 2.0 73 73
+ 0.95 1 2 cbr 500 ------- 0 0.0 2.0 73 73
- 0.95 1 2 cbr 500 ------- 0 0.0 2.0 73 73
- 0.95 0 1 cbr 500 ------- 0 0.0 2.0 75 75
+ 0.95 0 1 cbr 500 ------- 0 0.0 2.0 150 150
+ 0.955 0 1 cbr 500 ------- 0 0.0 2.0 151 151
d 0.955 0 1 cbr 500 ------- 0 0.0 2.0 151 151
r 0.96 1 2 cbr 500 ------- 0 0.0 2.0 72 72
r 0.96 0 1 cbr 500 ------- 0 0.0 2.0 74 74
+ 0.96 1 2 cbr 500 ------- 0 0.0 2.0 74 74
- 0.96 1 2 cbr 500 ------- 0 0.0 2.0 74 74
- 0.96 0 1 cbr 500 ------- 0 0.0 2.0 76 76
+ 0.96 0 1 cbr 500 ------- 0 0.0 2.0 152 152
+ 0.965 0 1 cbr 500 ------- 0 0.0 2.0 153 153
d 0.965 0 1 cbr 500 ------- 0 0.0 2.0 153 153
r 0.97 1 2 cbr 500 ------- 0 0.0 2.0 73 73
r 0.97 0 1 cbr 500 ------- 0 0.0 2.0 75 75
+ 0.97 1 2 cbr 500 ------- 0 0.0 2.0 75 75
- 0.97 1 2 cbr 500 ------- 0 0.0 2.0 75 75
- 0.97 0 1 cbr 500 ------- 0 0.0 2.0 77 77
+ 0.97 0 1 cbr 500 ------- 0 0.0 2.0 154 154
+ 0.975 0 1 cbr 500 ------- 0 0.0 2.0 155 155
d 0.975 0 1 cbr 500 ------- 0 0.0 2.0 155 155
r 0.98 1 2 cbr 500 ------- 0 0.0 2.0 74 74
r 0.98 0 1 cbr 500 ------- 0 0.0 2.0 76 76
+ 0.98 1 2 cbr 500 ------- 0 0.0 2.0 76 76
- 0.98 1 2 cbr 500 ------- 0 0.0 2.0 76 76
- 0.98 0 1 cbr 500 ------- 0 0.0 2.0 78 78
+ 0.98 0 1 cbr 500 ------- 0 0.0 2.0 156 156
+ 0.985 0 1 cbr 500 ------- 0 0.0 2.0 157 157
d 0.985 0 1 cbr 500 ------- 0 0.0 2.0 157 157
r 0.99 1 2 cbr 500 ------- 0 0.0 2.0 75 75
r 0.99 0 1 cbr 500 ------- 0 0.0 2.0 77 77
+ 0.99 1 2 cbr 500 ------- 0 0.0 2.0 77 77
- 0.99 1 2 cbr 500 ------- 0 0.0 2.0 77 77
- 0.99 0 1 cbr 500 ------- 0 0.0 2.0 79 79
+ 0.99 0 1 cbr 500 ------- 0 0.0 2.0 158 158
+ 0.995 0 1 cbr 500 ------- 0 0.0 2.0 159 159
d 0.995 0 1 cbr 500 ------- 0 0.0 2.0 159 159
r 1 1 2 cbr 500 ------- 0 0.0 2.0 76 76
r 1 0 1 cbr 500 ------- 0 0.0 2.0 78 78
+ 1 1 2 cbr 500 ------- 0 0.0 2.0 78 78
- 1 1 2 cbr 500 ------- 0 0.0 2.0 78 78
- 1 0 1 cbr 500 ------- 0 0.0 2.0 80 80
+ 1 0 1 cbr 500 ------- 0 0.0 2.0 160 160
+ 1.005 0 1 cbr 500 ------- 0 0.0 2.0 161 161
d 1.005 0 1 cbr 500 ------- 0 0.0 2.0 161 161
+ 1.01 0 1 cbr 500 ------- 0 0.0 2.0 162 162
d 1.01 0 1 cbr 500 ------- 0 0.0 2.0 162 162
r 1.01 1 2 cbr 500 ------- 0 0.0 2.0 77 77
r 1.01 0 1 cbr 500 ------- 0 0.0 2.0 79 79
+ 1.01 1 2 cbr 500 ------- 0 0.0 2.0 79 79
- 1.01 1 2 cbr 500 ------- 0 0.0 2.0 79 79
- 1.01 0 1 cbr 500 ------- 0 0.0 2.0 81 81
+ 1.015 0 1 cbr 500 ------- 0 0.0 2.0 163 163
+ 1.02 0 1 cbr 500 ------- 0 0.0 2.0 164 164
d 1.02 0 1 cbr 500 ------- 0 0.0 2.0 164 164
r 1.02 1 2 cbr 500 ------- 0 0.0 2.0 78 78
r 1.02 0 1 cbr 500 ------- 0 0.0 2.0 80 80
+ 1.02 1 2 cbr 500 ------- 0 0.0 2.0 80 80
- 1.02 1 2 cbr 500 ------- 0 0.0 2.0 80 80
- 1.02 0 1 cbr 500 ------- 0 0.0 2.0 82 82
+ 1.025 0 1 cbr 500 ------- 0 0.0 2.0 165 165
+ 1.03 0 1 cbr 500 ------- 0 0.0 2.0 166 166
d 1.03 0 1 cbr 500 ------- 0 0.0 2.0 166 166
r 1.03 1 2 cbr 500 ------- 0 0.0 2.0 79 79
r 1.03 0 1 cbr 500 ------- 0 0.0 2.0 81 81
+ 1.03 1 2 cbr 500 ------- 0 0.0 2.0 81 81
- 1.03 1 2 cbr 500 ------- 0 0.0 2.0 81 81
- 1.03 0 1 cbr 500 ------- 0 0.0 2.0 83 83
+ 1.035 0 1 cbr 500 ------- 0 0.0 2.0 167 167
+ 1.04 0 1 cbr 500 ------- 0 0.0 2.0 168 168
d 1.04 0 1 cbr 500 ------- 0 0.0 2.0 168 168
r 1.04 1 2 cbr 500 ------- 0 0.0 2.0 80 80
r 1.04 0 1 cbr 500 ------- 0 0.0 2.0 82 82
+ 1.04 1 2 cbr 500 ------- 0 0.0 2.0 82 82
- 1.04 1 2 cbr 500 ------- 0 0.0 2.0 82 82
- 1.04 0 1 cbr 500 ------- 0 0.0 2.0 84 84
+ 1.045 0 1 cbr 500 ------- 0 0.0 2.0 169 169
+ 1.05 0 1 cbr 500 ------- 0 0.0 2.0 170 170
d 1.05 0 1 cbr 500 ------- 0 0.0 2.0 170 170
r 1.05 1 2 cbr 500 ------- 0 0.0 2.0 81 81
r 1.05 0 1 cbr 500 ------- 0 0.0 2.0 83 83
+ 1.05 1 2 cbr 500 ------- 0 0.0 2.0 83 83
- 1.05 1 2 cbr 500 ------- 0 0.0 2.0 83 83
- 1.05 0 1 cbr 500 ------- 0 0.0 2.0 85 85
+ 1.055 0 1 cbr 500 ------- 0 0.0 2.0 171 171
+ 1.06 0 1 cbr 500 ------- 0 0.0 2.0 172 172
d 1.06 0 1 cbr 500 ------- 0 0.0 2.0 172 172
r 1.06 1 2 cbr 500 ------- 0 0.0 2.0 82 82
r 1.06 0 1 cbr 500 ------- 0 0.0 2.0 84 84
+ 1.06 1 2 cbr 500 ------- 0 0.0 2.0 84 84
- 1.06 1 2 cbr 500 ------- 0 0.0 2.0 84 84
- 1.06 0 1 cbr 500 ------- 0 0.0 2.0 86 86
+ 1.065 0 1 cbr 500 ------- 0 0.0 2.0 173 173
+ 1.07 0 1 cbr 500 ------- 0 0.0 2.0 174 174
d 1.07 0 1 cbr 500 ------- 0 0.0 2.0 174 174
r 1.07 1 2 cbr 500 ------- 0 0.0 2.0 83 83
r 1.07 0 1 cbr 500 ------- 0 0.0 2.0 85 85
+ 1.07 1 2 cbr 500 ------- 0 0.0 2.0 85 85
- 1.07 1 2 cbr 500 ------- 0 0.0 2.0 85 85
- 1.07 0 1 cbr 500 ------- 0 0.0 2.0 87 87
+ 1.075 0 1 cbr 500 ------- 0 0.0 2.0 175 175
+ 1.08 0 1 cbr 500 ------- 0 0.0 2.0 176 176
d 1.08 0 1 cbr 500 ------- 0 0.0 2.0 176 176
r 1.08 1 2 cbr 500 ------- 0 0.0 2.0 84 84
r 1.08 0 1 cbr 500 ------- 0 0.0 2.0 86 86
+ 1.08 1 2 cbr 500 ------- 0 0.0 2.0 86 86
- 1.08 1 2 cbr 500 ------- 0 0.0 2.0 86 86
- 1.08 0 1 cbr 500 ------- 0 0.0 2.0 88 88
+ 1.085 0 1 cbr 500 ------- 0 0.0 2.0 177 177
+ 1.09 0 1 cbr 500 ------- 0 0.0 2.0 178 178
d 1.09 0 1 cbr 500 ------- 0 0.0 2.0 178 178
r 1.09 1 2 cbr 500 ------- 0 0.0 2.0 85 85
r 1.09 0 1 cbr 500 ------- 0 0.0 2.0 87 87
+ 1.09 1 2 cbr 500 ------- 0 0.0 2.0 87 87
- 1.09 1 2 cbr 500 ------- 0 0.0 2.0 87 87
- 1.09 0 1 cbr 500 ------- 0 0.0 2.0 89 89
+ 1.095 0 1 cbr 500 ------- 0 0.0 2.0 179 179
+ 1.1 0 1 cbr 500 ------- 0 0.0 2.0 180 180
d 1.1 0 1 cbr 500 ------- 0 0.0 2.0 180 180
r 1.1 1 2 cbr 500 ------- 0 0.0 2.0 86 86
r 1.1 0 1 cbr 500 ------- 0 0.0 2.0 88 88
+ 1.1 1 2 cbr 500 ------- 0 0.0 2.0 88 88
- 1.1 1 2 cbr 500 ------- 0 0.0 2.0 88 88
- 1.1 0 1 cbr 500 ------- 0 0.0 2.0 90 90
+ 1.105 0 1 cbr 500 ------- 0 0.0 2.0 181 181
+ 1.11 0 1 cbr 500 ------- 0 0.0 2.0 182 182
d 1.11 0 1 cbr 500 ------- 0 0.0 2.0 182 182
r 1.11 1 2 cbr 500 ------- 0 0.0 2.0 87 87
r 1.11 0 1 cbr 500 ------- 0 0.0 2.0 89 89
+ 1.11 1 2 cbr 500 ------- 0 0.0 2.0 89 89
- 1.11 1 2 cbr 500 ------- 0 0.0 2.0 89 89
- 1.11 0 1 cbr 500 ------- 0 0.0 2.0 91 91
+ 1.115 0 1 cbr 500 ------- 0 0.0 2.0 183 183
+ 1.12 0 1 cbr 500 ------- 0 0.0 2.0 184 184
d 1.12 0 1 cbr 500 ------- 0 0.0 2.0 184 184
r 1.12 1 2 cbr 500 ------- 0 0.0 2.0 88 88
r 1.12 0 1 cbr 500 ------- 0 0.0 2.0 90 90
+ 1.12 1 2 cbr 500 ------- 0 0.0 2.0 90 90
- 1.12 1 2 cbr 500 ------- 0 0.0 2.0 90 90
- 1.12 0 1 cbr 500 ------- 0 0.0 2.0 92 92
+ 1.125 0 1 cbr 500 ------- 0 0.0 2.0 185 185
+ 1.13 0 1 cbr 500 ------- 0 0.0 2.0 186 186
d 1.13 0 1 cbr 500 ------- 0 0.0 2.0 186 186
r 1.13 1 2 cbr 500 ------- 0 0.0 2.0 89 89
r 1.13 0 1 cbr 500 ------- 0 0.0 2.0 91 91
+ 1.13 1 2 cbr 500 ------- 0 0.0 2.0 91 91
- 1.13 1 2 cbr 500 ------- 0 0.0 2.0 91 91
- 1.13 0 1 cbr 500 ------- 0 0.0 2.0 93 93
+ 1.135 0 1 cbr 500 ------- 0 0.0 2.0 187 187